321
Cycle 60 Energy -7725.75157759
Cd      -0.024026       0.019485      -0.024733
Se       1.189784       2.188792      -1.088918
Cd       1.338558       4.130768       0.845635
Cd      -1.379080      -4.208064      -0.937220
Se       0.068099      -2.033798      -1.792156
Cd      -0.237886       3.142685      -3.242170
Cd      -0.918447      -1.247848      -4.242313
Se      -0.026355       1.237386      -5.198809
Cd       0.260062      -3.102979       3.139036
Se       1.246554      -0.698411       2.266823
Cd       0.869969       1.185275       4.238527
Se       2.229100       3.406481       3.406186
Se      -0.055809      -5.172791       1.259338
Cd       3.747034       1.595382      -1.907356
Cd       2.687693      -2.807491      -2.061860
Se       3.981332      -0.793807      -3.378598
Cd       3.956891      -0.981250       1.876314
Se       5.172999       1.063202       0.372044
Se       4.229571      -3.183726       0.261244
Cd      -3.727356      -1.507660       1.855907
Se      -2.611447       0.611026       0.523396
Cd      -2.818997       2.847544       2.111647
Se      -1.211456       5.005113       1.299010
Se      -3.927719      -3.576242       0.085873
Cd      -4.016899       1.043686      -1.808099
Se      -3.020603       3.354144      -2.884195
Se      -3.600607      -0.814442      -3.876760
Se      -2.292538      -2.622941       3.999909
Se      -1.764793       2.150678       4.550073
Se      -5.964423      -0.574845       3.047078
Se      -5.366828       3.781268       2.009404
Se      -6.651477       0.885988      -1.193957
Se       3.201723       5.892635      -0.004811
Se       0.624225       5.657914      -3.741465
Se       4.600535       3.544329      -3.594803
Se      -1.842954      -5.883219      -3.018089
Se      -0.110009      -3.073790      -6.072684
Se       2.632655      -5.262730      -3.189334
Se       2.003977      -4.108708       4.929166
Se       1.534255       0.081199       6.616339
Se       5.220933      -0.998770       4.278735
Cd      -2.478668      -0.281372       5.104514
 O      -4.293670      -0.106071       6.661816
 O      -2.358989      -0.667219       7.519442
 C      -3.597100      -0.406885       7.694661
 C      -4.214426      -0.421937       9.061569
 H      -3.646583      -1.054136       9.725855
 H      -4.196636       0.587463       9.457159
 H      -5.243705      -0.741750       9.001911
Cd      -2.520158       4.992562      -0.943470
 O      -4.300842       6.503010      -0.837935
 O      -2.479048       7.341295      -1.710886
 C      -3.692414       7.512422      -1.345488
 C      -4.393664       8.825272      -1.521300
 H      -3.680200       9.634881      -1.511822
 H      -4.883811       8.822890      -2.489207
 H      -5.146058       8.945854      -0.757569
Cd      -4.498566      -2.627215      -2.263072
 O      -5.542925      -4.261206      -3.563219
 O      -6.941068      -2.958818      -2.498709
 C      -6.756284      -3.953541      -3.280629
 C      -7.901661      -4.719758      -3.869947
 H      -8.763131      -4.662027      -3.222501
 H      -8.164859      -4.263284      -4.818351
 H      -7.606128      -5.741092      -4.052754
Cd      -6.182116       0.478375       5.447380
 O      -8.876408       1.291421       5.180741
 O      -7.843441       0.190643       6.813489
 N      -5.606276       2.737900       5.619953
 C      -8.921846       0.678838       6.276409
 H      -4.621815       2.756798       5.824130
 H      -5.731853       3.127385       4.698410
 C      -6.395685       3.495263       6.625644
 C     -10.217986       0.478627       7.019210
 H      -6.076480       4.529731       6.691471
 H      -7.436935       3.467567       6.344776
 H      -6.289322       3.031155       7.596375
 H     -10.421080      -0.582238       7.097620
 H     -10.121913       0.867005       8.025105
 H     -11.029566       0.970214       6.505952
Cd      -6.156986       5.669345       0.313531
 O      -8.501062       6.368349       0.820031
 O      -6.835907       7.800517       0.636239
 N      -6.809581       4.710218      -1.731894
 C      -8.081747       7.560209       0.885269
 H      -5.973588       4.705620      -2.290848
 H      -7.050147       3.750546      -1.542045
 C      -7.923549       5.415853      -2.416864
 C      -8.990501       8.701314       1.253186
 H      -8.190906       4.935450      -3.351815
 H      -8.783029       5.433565      -1.765663
 H      -7.630560       6.437272      -2.619717
 H      -8.665231       9.120660       2.197533
 H      -8.916077       9.481451       0.506710
 H     -10.010383       8.361280       1.338857
Cd      -8.011486      -1.378045      -1.216695
 O     -10.357157      -0.342777       0.244928
 O     -10.120886      -1.455583      -1.672399
 N      -7.780932      -2.785854       0.637969
 C     -10.851520      -0.826611      -0.801285
 H      -6.980956      -3.363188       0.443237
 H      -7.545661      -2.190594       1.416374
 C      -8.987129      -3.599473       0.937593
 C     -12.324218      -0.705860      -1.106060
 H      -8.822838      -4.268111       1.776005
 H      -9.805449      -2.937506       1.173055
 H      -9.255910      -4.185145       0.069497
 H     -12.451501      -0.140496      -2.020964
 H     -12.740686      -1.691208      -1.272174
 H     -12.840954      -0.214733      -0.296173
Cd      -0.388049       7.792507      -2.559918
 O       1.749130       9.638559      -3.366741
 O      -0.472515       9.725512      -3.521944
 N       0.339611       8.264723      -0.387012
 C       0.707564      10.210187      -3.768780
 H      -0.275191       7.753195       0.222514
 H       1.259004       7.860618      -0.302088
 C       0.363908       9.712487      -0.054823
 C       0.767578      11.492898      -4.560595
 H       0.664488       9.883772       0.973405
 H       1.060946      10.209680      -0.710733
 H      -0.618117      10.137709      -0.208749
 H       0.336497      11.325298      -5.539871
 H       0.170767      12.249836      -4.067816
 H       1.787568      11.829935      -4.661296
Cd      -4.044715      -5.792792      -4.503525
 O      -4.102547      -7.710990      -6.097562
 O      -5.769990      -7.235550      -4.737250
 N      -3.784388      -4.248286      -6.256509
 C      -5.245068      -8.000730      -5.637625
 H      -4.123722      -3.377461      -5.885233
 H      -2.793806      -4.145067      -6.408539
 C      -4.483254      -4.617868      -7.514695
 C      -6.002562      -9.214267      -6.103183
 H      -4.328671      -3.879256      -8.293759
 H      -4.118600      -5.574971      -7.852425
 H      -5.544188      -4.707407      -7.323084
 H      -6.103210      -9.905915      -5.275564
 H      -6.999368      -8.925745      -6.410578
 H      -5.484226      -9.695361      -6.917421
Cd      -0.192265      -1.264194       8.080245
 O       1.742037      -2.470068       9.866649
 O      -0.135738      -1.333375      10.244640
 N      -0.663074      -3.469370       7.462766
 C       0.941551      -1.926342      10.665646
 H      -1.394319      -3.415803       6.774514
 H       0.165240      -3.807373       6.998457
 C      -1.036131      -4.356217       8.594278
 C       1.185815      -1.931184      12.153907
 H      -1.281382      -5.357443       8.256100
 H      -0.207423      -4.412922       9.282277
 H      -1.888952      -3.943247       9.114997
 H       1.299609      -0.910361      12.497328
 H       0.325960      -2.350835      12.660296
 H       2.072045      -2.498696      12.391702
Cd       3.284755      -1.920124       5.976363
 N       4.136622      -2.803891       7.936426
 H       3.353504      -2.845731       8.572071
 H       4.428533      -3.742291       7.704829
 C       5.255112      -2.043840       8.554701
 H       5.617576      -2.532741       9.452290
 H       6.071668      -1.947366       7.856036
 H       4.916087      -1.051686       8.816989
Cd       0.302655      -5.360380      -4.638855
 N       0.748437      -7.104507      -6.089769
 H       1.335150      -6.707510      -6.809450
 H       1.283334      -7.775148      -5.557556
 C      -0.441440      -7.751944      -6.702547
 H      -0.155670      -8.573871      -7.349678
 H      -1.099910      -8.125820      -5.933613
 H      -0.985699      -7.025958      -7.289791
Cd      -6.792494       1.509305       1.462471
 N      -9.010646       1.689658       2.090655
 H      -9.487158       0.947971       1.598129
 H      -9.030943       1.497015       3.081405
 C      -9.659716       2.994792       1.797488
 H     -10.687435       3.012413       2.143165
 H      -9.117283       3.796669       2.274240
 H      -9.653316       3.170016       0.731000
Cd       3.169805       5.720254      -2.742711
 N       4.141671       7.721793      -3.362342
 H       3.416894       8.416407      -3.254320
 H       4.870050       7.893204      -2.684229
 C       4.690891       7.772038      -4.742920
 H       5.151013       8.731730      -4.950963
 H       5.427555       6.995589      -4.880388
 H       3.893413       7.612603      -5.455077
 H      -2.171303      -5.859920       2.404308
 H      -3.110423      -4.891790       3.347062
 H      -3.624120      -5.325468       1.845496
 H      -3.582272      -6.471953       3.063147
 H       0.609464       4.994226       4.419887
 H      -0.769670       5.537570       3.705964
 H      -0.854339       4.459385       4.946848
 H      -0.395663       6.037628       5.257913
 H       6.164128      -1.240304      -2.239465
 H       6.598015      -0.648638      -0.766353
 H       6.215665      -2.240591      -0.933972
 H       7.644681      -1.664120      -1.586010
 H      -2.304414       1.711017      -6.115898
 H      -3.372310       2.609367      -5.244088
 H      -3.764604       2.150104      -6.804276
 H      -3.696222       1.028687      -5.564558
 N       6.681756      -1.454130      -1.386892
 N      -3.134220      -5.659574       2.675582
 N      -0.354436       5.277871       4.600664
 N      -3.297101       1.882123      -5.955448
Cd       2.514191      -5.026596       0.894482
 O       3.704698      -6.628270       2.291093
 O       3.206947      -7.241927       0.250457
 C       3.736919      -7.525241       1.380956
Cd       4.043892      -5.669792       4.369926
Cd       2.560590      -7.578328      -1.947510
 C       4.345511      -8.872688       1.632827
 O       5.178834      -5.573109       6.999698
 O       4.765347      -7.278278       5.630345
 N       5.973418      -4.610447       3.583778
 O       3.601756      -9.384720      -2.552980
 O       2.191744      -9.166280      -4.258472
 N       0.447808      -8.282721      -1.233438
 H       5.096432      -8.809208       2.404667
 H       3.565346      -9.542173       1.977611
 H       4.756624      -9.273387       0.718908
 C       5.157232      -6.808362       6.777437
 H       5.885257      -4.584362       2.582443
 H       5.923844      -3.660102       3.917099
 C       7.242429      -5.254337       4.011656
 C       3.151755      -9.764163      -3.711778
 H       0.330904      -7.903685      -0.309418
 H      -0.216916      -7.822419      -1.835770
 C       0.252464      -9.755433      -1.258043
 C       5.582163      -7.808027       7.823149
 H       8.108876      -4.746248       3.602404
 H       7.299841      -5.231286       5.088741
 H       7.254023      -6.286105       3.688939
 C       3.826865     -10.942466      -4.365832
 H      -0.728627     -10.037467      -0.891492
 H       0.360502     -10.104903      -2.272974
 H       1.007065     -10.232852      -0.648385
 H       4.740488      -8.443836       8.068437
 H       6.362601      -8.441641       7.421356
 H       5.931951      -7.303848       8.710456
 H       4.864162     -10.695846      -4.555649
 H       3.811583     -11.788527      -3.690662
 H       3.335050     -11.195894      -5.291927
Cd       2.376070       0.272942      -5.119597
 O       3.013232      -0.760452      -7.283919
 O       3.584963       1.300947      -6.829380
 C       3.612920       0.309478      -7.643817
Cd       2.203429      -2.909331      -7.337106
Cd       4.395146       3.413138      -6.240305
 C       4.302131       0.422667      -8.969892
 O       2.186751      -5.671856      -8.373328
 O       2.484295      -3.682478      -9.334482
 N       4.117374      -3.606077      -6.186229
 O       5.944251       3.199171      -7.877535
 O       5.600379       5.303052      -7.320248
 N       2.307544       4.249192      -6.930684
 H       4.621183      -0.550407      -9.310286
 H       3.591861       0.813483      -9.690942
 H       5.128627       1.112304      -8.897178
 C       2.346209      -4.972529      -9.402279
 H       4.438001      -2.798590      -5.679892
 H       3.809617      -4.287330      -5.510377
 C       5.181104      -4.166559      -7.058551
 C       6.233546       4.451923      -8.010535
 H       1.701408       3.446842      -6.942386
 H       1.982435       4.861336      -6.199597
 C       2.323353       4.944602      -8.243686
 C       2.387501      -5.591990     -10.777381
 H       6.066140      -4.434783      -6.491310
 H       4.800901      -5.047463      -7.551284
 H       5.454125      -3.440673      -7.811802
 C       7.317070       4.859083      -8.971357
 H       1.341381       5.316884      -8.514892
 H       3.017714       5.768534      -8.197971
 H       2.661052       4.258696      -9.009076
 H       1.565894      -5.202990     -11.366054
 H       3.306472      -5.307846     -11.274079
 H       2.316063      -6.666620     -10.712465
 H       8.264108       4.466621      -8.621247
 H       7.123487       4.425610      -9.943951
 H       7.374485       5.933512      -9.044789
Cd       4.442861       2.722394       2.236226
 O       6.177344       4.459375       2.264513
 O       6.153949       2.938803       3.833981
 C       6.714849       3.969150       3.317336
Cd       5.792432       5.853833       0.479945
Cd       6.267308       1.184795       5.367965
 C       7.932419       4.582104       3.940103
 O       6.443147       8.005776      -1.350758
 O       7.011631       7.615885       0.766500
 N       7.058183       4.446833      -0.894739
 O       8.402881       1.777375       5.801550
 O       7.535527       0.595270       7.447642
 N       4.648621       2.350137       6.611145
 H       8.531485       5.070011       3.186444
 H       7.609192       5.337866       4.648214
 H       8.493768       3.829865       4.471629
 C       7.013079       8.368285      -0.293202
 H       7.086049       3.561081      -0.419702
 H       6.523965       4.323195      -1.740724
 C       8.420736       4.955576      -1.199392
 C       8.532096       1.192244       6.947663
 H       4.227285       2.982487       5.952381
 H       3.945411       1.679316       6.876123
 C       5.180152       3.067158       7.798778
 C       7.729173       9.691856      -0.194875
 H       8.983089       4.258242      -1.810922
 H       8.333258       5.892440      -1.727092
 H       8.958745       5.128900      -0.277811
 C       9.864543       1.232215       7.645215
 H       4.397401       3.588137       8.339548
 H       5.655550       2.356274       8.455949
 H       5.923515       3.786107       7.481235
 H       7.253861      10.296321       0.567658
 H       8.753712       9.525976       0.113087
 H       7.704014      10.208429      -1.141684
 H      10.590333       0.691266       7.050196
 H      10.204540       2.256815       7.722717
 H       9.793238       0.786414       8.624669
